<VTKFile type="UnstructuredGrid" version="0.1" byte_order="BigEndian">
  <UnstructuredGrid>
    <Piece NumberOfPoints="27" NumberOfCells="12">
      <PointData Scalars="scalars">
        <DataArray type="Float32" Name="csum" Format="ascii">
          0.0
          1.0
          2.0
          1.0
          2.0
          3.0
          1.0
          2.0
          3.0
          2.0
          3.0
          4.0
          3.0
          4.0
          5.0
          4.0
          5.0
          6.0
          5.0
          6.0
          7.0
          6.0
          7.0
          8.0
          7.0
          8.0
          9.0
        </DataArray>
      </PointData>
      <CellData Scalars="scalars">
        <DataArray type="Int32" Name="nmax" Format="ascii">
          10
          10
          12
          11
          17
          20
          23
          22
          22
          26
          24
          25
        </DataArray>
      </CellData>
      <Points>
        <DataArray type="Float32" NumberOfComponents="3" Format="ascii">
          0.0 0.0 0.0
          1.0 0.0 0.0
          2.0 0.0 0.0
          0.0 1.0 0.0
          1.0 1.0 0.0
          2.0 1.0 0.0
          0.0 0.0 1.0
          1.0 0.0 1.0
          2.0 0.0 1.0
          0.0 1.0 1.0
          1.0 1.0 1.0
          2.0 1.0 1.0
          0.0 1.0 2.0
          1.0 1.0 2.0
          2.0 1.0 2.0
          0.0 1.0 3.0
          1.0 1.0 3.0
          2.0 1.0 3.0
          0.0 1.0 4.0
          1.0 1.0 4.0
          2.0 1.0 4.0
          0.0 1.0 5.0
          1.0 1.0 5.0
          2.0 1.0 5.0
          0.0 1.0 6.0
          1.0 1.0 6.0
          2.0 1.0 6.0
        </DataArray>
      </Points>
      <Cells>
        <DataArray type="Int32" Name="connectivity" Format="ascii">
           0  1  4  3  6  7 10  9
           1  2  5  4  7  8 11 10
           6 10  9 12
           5 11 10 14
          15 16 17 14 13 12
          18 15 19 16 20 17
          22 23 20 19
          21 22 18
          22 19 18
          23 26
          21 24
          25
        </DataArray>
        <DataArray type="Int32" Name="offsets" Format="ascii">
          8 16 20 24 30 36 40 43 46 48 50 51
        </DataArray>
        <DataArray type="Int32" Name="types" Format="ascii">
          12  12  10  10  7  6  9  5  5  3  3  1
        </DataArray>
      </Cells>
    </Piece>
  </UnstructuredGrid>
</VTKFile>
